












































 

  
   Bid Number: GEM/2020/B/673128

  Dated: 15-06-2020

  

Bid Document
Bid Details

Bid End Date/Time 29-06-2020 14:00:00

Bid Opening Date/Time 2020-06-29 14:30:00

Bid Life Cycle (From Publish Date) 90 (Days)

Bid Offer Validity (From End Date) 75 (Days)

Ministry/State Name Ministry Of Petroleum And Natural Gas

Department Name Indian Oil Corporation Limited

Organisation Name Ioc Mathura Refinery

Office Name Materials Department Mathura Refinery

Total Quantity 240

Item Category Petroleum ether

MSE Exemption for Years of Experience and
Turnover

 No

Startup Exemption for Years of Experience
and Turnover

 No

Bid to RA enabled  No

EMD Detail

Required No

ePBG Detail

Required No
Splitting

  Bid splitting not applied.  

Petroleum Ether ( 240 liter )

Technical Specifications

* As per GeM Category Specification

                               1 / 3

https://bidplus.gem.gov.in/bidding/bid/showCatalogue/dYSca4UZ2bIPKBw557hIluzKYQsHP2vihmpHqZMhW9U


 

Specification Specification Name Values Bid Requirement
(Allowed Values)

Identifiers Cas Number 8032-32-4 *

Physical And Chemical
Characteristics

Flash Point < 0 C *

Refractive Index (Nd) 1.37 *

Density At 20 C In G/Ml 0.64-0.66 *

Solubility In Water Insoluble *

Specific Gravity, (20/4
°C)

0.671 *

Molar Mass (G/Mol) 82.2 *

Molecular Formula CnH2n+2(n=5~8) *

Solubility In Ethanol Yes *

Vapor Density (Air) 2.5 *

Vapor Pressure (kPa) At
20 C

31 *

Boiling Point 42-62 C *

Melting Point < -73 °C *

Physical State Liquid *

Autoignition
Temperature

246.11 C *

Viscosity (mPas) 0.46 *

Packaging Guidelines Manufacturing and
expiry printed on label

Yes *

Shelf Life 24 *

Packaging Size 0.5 0.5

Packaging Type Plastic Bottle Plastic Bottle

Reports & Certifications Test Report To Be
Submitted To The
Buyer On Demand

Yes *

Availability Of Test
Report From Central
Govt/Nabl/Ilac
Accredited Lab To
Prove Conformity To
Specification

Yes *

Is Iso Certified Yes *
  * Specifications highlighted in bold are the Golden Parameters.
  * Bidders may note that In respect of non-golden Parameters, the specifications 'Values' chosen by
Buyer will generally be preferred over 'Bid requirement ( allowed Values) by the Buyer.

Additional Specification Documents

 Consignees/Reporting Officer and Quantity

                               2 / 3



 

S.No. Consignee/Reporti
ng Officer

Address Quantity Delivery Days

1 Mayank Rai 281005,Mathura Refinery
Indian Oil Corporation

240  30

Bid Specific Additional Terms and Conditions

1.Scope of supply (Bid price to include all cost components) : Only supply of Goods
2.Preference to Make In India products: Preference shall be given to local supplier as defined in

public procurement (Preference to Make in India), Order 2017 as amended from time to time
and its subsequent Orders/Notifications issued by concerned Nodal Ministry for specific
Goods/Products. The minimum local content to qualify as a local supplier, should be as per
relevant notification / order issued by the nodal ministry as available on the website of
Department of Promotion of Industries and Internal Trade (DPIIT). If the bidder wants to avail
the Purchase preference, the bidder must upload a certificate from the OEM regarding the
percentage of the local content and the details of locations at which the local value addition
is made along with their bid, failing which no purchase preference shall be granted. In case
the bid value is more than Rs 10 Crore, the declaration relating to percentage of local
content shall be certified by the statutory auditor or cost auditor, if the OEM is a company
and by a practicing cost accountant or a chartered accountant for OEMs other than
companies as per the Public Procurement (preference to Make-in -India) order 2017 dated
29.5.2019.

This Bid is also governed by the General Terms and Conditions

---Thank You---

Powered by TCPDF (www.tcpdf.org)

                               3 / 3

https://gem.gov.in/termsCondition
http://www.tcpdf.org

