












































 

  
   Bid Number: GEM/2020/B/708932

  Dated: 13-07-2020

  

Bid Document
Bid Details

Bid End Date/Time 23-07-2020 21:00:00

Bid Opening Date/Time 23-07-2020 21:30:00

Bid Life Cycle (From Publish Date) 90 (Days)

Bid Offer Validity (From End Date) 30 (Days)

Ministry/State Name Jharkhand

Department Name Home Department Jharkhand

Organisation Name N/a

Office Name State Forensic Science Laboratory Jharkhand

Total Quantity 500

Item Category Diethyl ether

MSE Exemption for Years of Experience and
Turnover

 No

Startup Exemption for Years of Experience
and Turnover

 No

Bid to RA enabled  No

Inspection Required  No

EMD Detail

Required No

ePBG Detail

Required No
Splitting

  Bid splitting not applied.  

Diethyl Ether ( 500 liter )

Technical Specifications

                               1 / 3



 

* As per GeM Category Specification

Specification Specification Name Values Bid Requirement
(Allowed Values)

Standards CAS No. 60-29-7 *

Physical & Chemical
Properties

Molar Mass 74.12 g/mol *

Chemical Formula C4H10O *

Density 1.725 g/cm3 *

Boiling Point 34.6 deg Celsius *

Form Colorless liquid *

Solubility in water 6.05g/100ml *

Composition Matter Insoluble in
water,percent by mass,
Max

0.015 *

Iron,percent by
mass,Max

0.01 *

Purity, percent by
mass , min

99.5 99.5 Or higher

Heavy Metals,percent
by mass,Max

0.005 *

Packaging guidelines Packaging Container
Norms

Suitable with Chemical
Grade

*

Packaging Type Plastic Bottle Plastic Bottle,
Aluminium Bottle, MS
Drum, Plastic Drum

Minimum 90% Shelf life
at the time of material
supply

Yes *

Manufacturing and
Expiry date printed on
Packaging Label

Yes *

Test Reports &
Certifications

Test Report To Be
Submitted To The
Buyer On Demand

No Yes, No

Availability of Test
Report from Central
Govt/NABL/ILAC
accredited lab to
prove conformity to
specification

No Yes, No

MSDS Certificate
Supply with material

No *

  * Specifications highlighted in bold are the Golden Parameters.
  * Bidders may note that In respect of non-golden Parameters, the specifications 'Values' chosen by
Buyer will generally be preferred over 'Bid requirement ( allowed Values) by the Buyer.

                               2 / 3

https://bidplus.gem.gov.in/bidding/bid/showCatalogue/DayU_0sW5zlFOrcM1rbGZlGw08Ni_ARBSh0arArmTJQ


 

Additional Specification Documents

 Consignees/Reporting Officer and Quantity

S.No. Consignee/Reporti
ng Officer

Address Quantity Delivery Days

1 Subrato Sarkar 834001,State Forensic
Science Laboratory (SFSL),
jharkhand Near Birsa Munda
Central Jail Hotwar Khelgaon
Ranchi

500  30

Bid Specific Additional Terms and Conditions

1. IMPORTED PRODUCTS: In case of imported products, OEM or Authorized Seller of OEM should
have a registered office in India to provide after sales service support in India. The certificate
to this effect should be submitted.

2.Bidder financial standing: The bidder should not be under liquidation, court receivership
or similar proceedings, should not be bankrupt. Bidder to upload undertaking to this effect
with bid.

3.Consortium: In case of Contracts, wherein the seller alone does not have necessary
expertise, the seller can form consortium with other sellers for submission of the bid, with
one of the consortium company as leader. However, each and every member of the
consortium shall be equally responsible for the complete execution of the project contract.
An undertaking to this effect is to be uploaded with bid.

4.End User Certificate: Wherever Bidders are insisting for End User Certificate from the
Buyer, same shall be provided in Buyer’s standard format only.

This Bid is also governed by the General Terms and Conditions

---Thank You---

Powered by TCPDF (www.tcpdf.org)

                               3 / 3

https://gem.gov.in/termsCondition
http://www.tcpdf.org

